10
Energy: 2.122e-314, moment of inertia: {}
X           0.000000       0.000000       0.000000
X           0.000000       1.000000       0.000000
X          -0.942809       1.333333       0.000000
X          -0.183324       1.981481       0.055556
X          -0.392837       1.388889       0.833333
X          -0.707107       0.500000       0.500000
X          -0.707107       0.500000      -0.500000
X           0.235702       0.500000      -0.833333
X           0.864242       0.500000      -0.055556
X           0.340459       0.500000       0.796296
